version 3
run Single-UE-0-20230209-20:27:19-810610
attr configname Single-UE
attr datetime 20230209-20:27:19
attr datetimef 20230209-202719
attr experiment Single-UE
attr inifile omnetpp.ini
attr iterationvars ""
attr iterationvarsd ""
attr iterationvarsf ""
attr measurement ""
attr network simu5g.simulations.NR.networks.SingleCell_Standalone
attr processid 810610
attr repetition 0
attr replication #0
attr resultdir results
attr runnumber 0
attr seedset 0
config image-path ../../../images:../../../../inet4.4/images
config *.gnb.mobility.initialX 500m
config *.gnb.mobility.initialY 500m
config *.numUe 1
config *.ue[*].mobility.initialX 500m
config *.ue[*].mobility.initialY 900m
config *.ue[*].macCellId 0
config *.ue[*].masterId 0
config *.ue[*].nrMacCellId 1
config *.ue[*].nrMasterId 1
config *.ue[*].numApps 1
config *.server.numApps 1
config *.ue[*].app[*].typename CbrReceiver
config *.ue[*].app[*].localPort 1000
config *.server.app[*].typename CbrSender
config *.server.app[*].PacketSize 1000
config *.server.app[*].sampling_time 0.01s
config *.server.app[*].destAddress "\"ue[\"+string(ancestorIndex(0))+\"]\""
config *.server.app[*].destPort 1000
config *.server.app[*].localPort 3088+ancestorIndex(0)
config *.server.app[*].startTime uniform(0.01s,0.05s)
config output-scalar-file-append false
config network simu5g.simulations.NR.networks.SingleCell_Standalone
config sim-time-limit 10s
config warmup-period 1s
config seed-set 0
config output-scalar-file results/Single-UE/0.sca
config output-vector-file results/Single-UE/0.vec
config **.routingRecorder.enabled false
config **.amcType "\"NRAmc\""
config **.targetBler 0.01
config **.blerShift 5
config *.configurator.config "xmldoc(\"./demo.xml\")"
config **.mobility.constraintAreaMaxX 1000m
config **.mobility.constraintAreaMaxY 1000m
config **.mobility.constraintAreaMinX 0m
config **.mobility.constraintAreaMinY 0m
config **.mobility.constraintAreaMinZ 0m
config **.mobility.constraintAreaMaxZ 0m
config **.mobility.initFromDisplayString false

vector 0 SingleCell_Standalone.server.udp passedUpPk:vector(count) ETV
attr interpolationmode none
attr recordingmode vector(count)
attr source packetSentToUpper
attr title "packets passed up, count"
vector 1 SingleCell_Standalone.server.udp droppedPkWrongPort:vector(count) ETV
attr interpolationmode none
attr recordingmode vector(count)
attr source packetDropReasonIsNoPortFound(packetDropped)
attr title "packets dropped (wrong port), count"
vector 2 SingleCell_Standalone.server.udp droppedPkBadChecksum:vector(count) ETV
attr interpolationmode none
attr recordingmode vector(count)
attr source packetDropReasonIsIncorrectlyReceived(packetDropped)
attr title "packets dropped (checksum error), count"
vector 3 SingleCell_Standalone.upf.udp passedUpPk:vector(count) ETV
attr interpolationmode none
attr recordingmode vector(count)
attr source packetSentToUpper
attr title "packets passed up, count"
vector 4 SingleCell_Standalone.upf.udp droppedPkWrongPort:vector(count) ETV
attr interpolationmode none
attr recordingmode vector(count)
attr source packetDropReasonIsNoPortFound(packetDropped)
attr title "packets dropped (wrong port), count"
vector 5 SingleCell_Standalone.upf.udp droppedPkBadChecksum:vector(count) ETV
attr interpolationmode none
attr recordingmode vector(count)
attr source packetDropReasonIsIncorrectlyReceived(packetDropped)
attr title "packets dropped (checksum error), count"
vector 6 SingleCell_Standalone.iUpf.udp passedUpPk:vector(count) ETV
attr interpolationmode none
attr recordingmode vector(count)
attr source packetSentToUpper
attr title "packets passed up, count"
vector 7 SingleCell_Standalone.iUpf.udp droppedPkWrongPort:vector(count) ETV
attr interpolationmode none
attr recordingmode vector(count)
attr source packetDropReasonIsNoPortFound(packetDropped)
attr title "packets dropped (wrong port), count"
vector 8 SingleCell_Standalone.iUpf.udp droppedPkBadChecksum:vector(count) ETV
attr interpolationmode none
attr recordingmode vector(count)
attr source packetDropReasonIsIncorrectlyReceived(packetDropped)
attr title "packets dropped (checksum error), count"
vector 9 SingleCell_Standalone.gnb.udp passedUpPk:vector(count) ETV
attr interpolationmode none
attr recordingmode vector(count)
attr source packetSentToUpper
attr title "packets passed up, count"
vector 10 SingleCell_Standalone.gnb.udp droppedPkWrongPort:vector(count) ETV
attr interpolationmode none
attr recordingmode vector(count)
attr source packetDropReasonIsNoPortFound(packetDropped)
attr title "packets dropped (wrong port), count"
vector 11 SingleCell_Standalone.gnb.udp droppedPkBadChecksum:vector(count) ETV
attr interpolationmode none
attr recordingmode vector(count)
attr source packetDropReasonIsIncorrectlyReceived(packetDropped)
attr title "packets dropped (checksum error), count"
vector 12 SingleCell_Standalone.ue[0].udp passedUpPk:vector(count) ETV
attr interpolationmode none
attr recordingmode vector(count)
attr source packetSentToUpper
attr title "packets passed up, count"
vector 13 SingleCell_Standalone.ue[0].udp droppedPkWrongPort:vector(count) ETV
attr interpolationmode none
attr recordingmode vector(count)
attr source packetDropReasonIsNoPortFound(packetDropped)
attr title "packets dropped (wrong port), count"
vector 14 SingleCell_Standalone.ue[0].udp droppedPkBadChecksum:vector(count) ETV
attr interpolationmode none
attr recordingmode vector(count)
attr source packetDropReasonIsIncorrectlyReceived(packetDropped)
attr title "packets dropped (checksum error), count"
vector 15 SingleCell_Standalone.gnb.cellularNic.mac avgServedBlocksUl:vector ETV
attr recordingmode vector
attr source avgServedBlocksUl
attr title "Avg Served Blocks Ul"
attr unit blocks
vector 16 SingleCell_Standalone.gnb.cellularNic.mac avgServedBlocksDl:vector ETV
attr recordingmode vector
attr source avgServedBlocksDl
attr title "Avg Served Blocks Dl"
attr unit blocks
vector 17 SingleCell_Standalone.server.udp packetSent:vector(packetBytes) ETV
attr interpolationmode none
attr recordingmode vector(packetBytes)
attr source packetSent
attr title "packets sent, packetBytes"
vector 18 SingleCell_Standalone.server.ppp[0].queue incomingPacketLengths:vector ETV
attr interpolationmode none
attr recordingmode vector
attr source packetLength(packetPushStarted)
attr title "incoming packet lengths"
attr unit b
vector 19 SingleCell_Standalone.server.ppp[0].queue incomingDataRate:vector ETV
attr interpolationmode linear
attr recordingmode vector
attr source throughput(packetPushStarted)
attr title "incoming datarate"
attr unit bps
vector 20 SingleCell_Standalone.server.ppp[0].queue queueingTime:vector ETV
attr interpolationmode none
attr recordingmode vector
attr source queueingTime(packetPulled)
attr title "queueing times"
attr unit s
vector 21 SingleCell_Standalone.server.ppp[0].queue outgoingPacketLengths:vector ETV
attr interpolationmode none
attr recordingmode vector
attr source packetLength(packetPulled)
attr title "outgoing packet lengths"
attr unit b
vector 22 SingleCell_Standalone.server.ppp[0].queue outgoingDataRate:vector ETV
attr interpolationmode linear
attr recordingmode vector
attr source throughput(packetPulled)
attr title "outgoing datarate"
attr unit bps
vector 23 SingleCell_Standalone.server.ppp[0].ppp transmissionState:vector ETV
attr interpolationmode sample-hold
attr recordingmode vector
attr source transmissionStateChanged
attr title "tx state"
vector 24 SingleCell_Standalone.server.ppp[0].ppp txPk:vector(packetBytes) ETV
attr interpolationmode none
attr recordingmode vector(packetBytes)
attr source packetSentToLower
attr title "packets transmitted, packetBytes"
vector 25 SingleCell_Standalone.server.ppp[0].queue queueLength:vector ETV
attr autoWarmupFilter false
attr interpolationmode sample-hold
attr recordingmode vector
attr source "warmup(atomic(constant0(packetPushEnded) + count(packetPushStarted) - count(packetPulled) - count(packetRemoved) - count(packetDropped)))"
attr title "queue length"
attr unit pk
vector 26 SingleCell_Standalone.server.ppp[0].queue queueBitLength:vector ETV
attr autoWarmupFilter false
attr interpolationmode sample-hold
attr recordingmode vector
attr source "warmup(atomic(constant0(packetPushEnded) + sum(packetLength(packetPushStarted)) - sum(packetLength(packetPulled)) - sum(packetLength(packetRemoved)) - sum(packetLength(packetDropped))))"
attr title "queue bit length"
attr unit b
vector 27 SingleCell_Standalone.router.ppp[0].ppp rxPkOk:vector(packetBytes) ETV
attr interpolationmode none
attr recordingmode vector(packetBytes)
attr source rxPkOk
attr title "packets received OK, packetBytes"
vector 28 SingleCell_Standalone.router.ppp[0].ppp passedUpPk:vector(packetBytes) ETV
attr interpolationmode none
attr recordingmode vector(packetBytes)
attr source packetSentToUpper
attr title "packets passed to higher layer, packetBytes"
vector 29 SingleCell_Standalone.router.ppp[1].queue incomingPacketLengths:vector ETV
attr interpolationmode none
attr recordingmode vector
attr source packetLength(packetPushStarted)
attr title "incoming packet lengths"
attr unit b
vector 30 SingleCell_Standalone.router.ppp[1].queue incomingDataRate:vector ETV
attr interpolationmode linear
attr recordingmode vector
attr source throughput(packetPushStarted)
attr title "incoming datarate"
attr unit bps
vector 31 SingleCell_Standalone.router.ppp[1].queue queueingTime:vector ETV
attr interpolationmode none
attr recordingmode vector
attr source queueingTime(packetPulled)
attr title "queueing times"
attr unit s
vector 32 SingleCell_Standalone.router.ppp[1].queue outgoingPacketLengths:vector ETV
attr interpolationmode none
attr recordingmode vector
attr source packetLength(packetPulled)
attr title "outgoing packet lengths"
attr unit b
vector 33 SingleCell_Standalone.router.ppp[1].queue outgoingDataRate:vector ETV
attr interpolationmode linear
attr recordingmode vector
attr source throughput(packetPulled)
attr title "outgoing datarate"
attr unit bps
vector 34 SingleCell_Standalone.router.ppp[1].ppp transmissionState:vector ETV
attr interpolationmode sample-hold
attr recordingmode vector
attr source transmissionStateChanged
attr title "tx state"
vector 35 SingleCell_Standalone.router.ppp[1].ppp txPk:vector(packetBytes) ETV
attr interpolationmode none
attr recordingmode vector(packetBytes)
attr source packetSentToLower
attr title "packets transmitted, packetBytes"
vector 36 SingleCell_Standalone.router.ppp[1].queue queueLength:vector ETV
attr autoWarmupFilter false
attr interpolationmode sample-hold
attr recordingmode vector
attr source "warmup(atomic(constant0(packetPushEnded) + count(packetPushStarted) - count(packetPulled) - count(packetRemoved) - count(packetDropped)))"
attr title "queue length"
attr unit pk
vector 37 SingleCell_Standalone.router.ppp[1].queue queueBitLength:vector ETV
attr autoWarmupFilter false
attr interpolationmode sample-hold
attr recordingmode vector
attr source "warmup(atomic(constant0(packetPushEnded) + sum(packetLength(packetPushStarted)) - sum(packetLength(packetPulled)) - sum(packetLength(packetRemoved)) - sum(packetLength(packetDropped))))"
attr title "queue bit length"
attr unit b
vector 38 SingleCell_Standalone.upf.pppIf.ppp rxPkOk:vector(packetBytes) ETV
attr interpolationmode none
attr recordingmode vector(packetBytes)
attr source rxPkOk
attr title "packets received OK, packetBytes"
vector 39 SingleCell_Standalone.upf.pppIf.ppp passedUpPk:vector(packetBytes) ETV
attr interpolationmode none
attr recordingmode vector(packetBytes)
attr source packetSentToUpper
attr title "packets passed to higher layer, packetBytes"
vector 40 SingleCell_Standalone.upf.udp packetSent:vector(packetBytes) ETV
attr interpolationmode none
attr recordingmode vector(packetBytes)
attr source packetSent
attr title "packets sent, packetBytes"
vector 41 SingleCell_Standalone.upf.ppp[0].queue incomingPacketLengths:vector ETV
attr interpolationmode none
attr recordingmode vector
attr source packetLength(packetPushStarted)
attr title "incoming packet lengths"
attr unit b
vector 42 SingleCell_Standalone.upf.ppp[0].queue incomingDataRate:vector ETV
attr interpolationmode linear
attr recordingmode vector
attr source throughput(packetPushStarted)
attr title "incoming datarate"
attr unit bps
vector 43 SingleCell_Standalone.upf.ppp[0].queue queueingTime:vector ETV
attr interpolationmode none
attr recordingmode vector
attr source queueingTime(packetPulled)
attr title "queueing times"
attr unit s
vector 44 SingleCell_Standalone.upf.ppp[0].queue outgoingPacketLengths:vector ETV
attr interpolationmode none
attr recordingmode vector
attr source packetLength(packetPulled)
attr title "outgoing packet lengths"
attr unit b
vector 45 SingleCell_Standalone.upf.ppp[0].queue outgoingDataRate:vector ETV
attr interpolationmode linear
attr recordingmode vector
attr source throughput(packetPulled)
attr title "outgoing datarate"
attr unit bps
vector 46 SingleCell_Standalone.upf.ppp[0].ppp transmissionState:vector ETV
attr interpolationmode sample-hold
attr recordingmode vector
attr source transmissionStateChanged
attr title "tx state"
vector 47 SingleCell_Standalone.upf.ppp[0].ppp txPk:vector(packetBytes) ETV
attr interpolationmode none
attr recordingmode vector(packetBytes)
attr source packetSentToLower
attr title "packets transmitted, packetBytes"
vector 48 SingleCell_Standalone.upf.ppp[0].queue queueLength:vector ETV
attr autoWarmupFilter false
attr interpolationmode sample-hold
attr recordingmode vector
attr source "warmup(atomic(constant0(packetPushEnded) + count(packetPushStarted) - count(packetPulled) - count(packetRemoved) - count(packetDropped)))"
attr title "queue length"
attr unit pk
vector 49 SingleCell_Standalone.upf.ppp[0].queue queueBitLength:vector ETV
attr autoWarmupFilter false
attr interpolationmode sample-hold
attr recordingmode vector
attr source "warmup(atomic(constant0(packetPushEnded) + sum(packetLength(packetPushStarted)) - sum(packetLength(packetPulled)) - sum(packetLength(packetRemoved)) - sum(packetLength(packetDropped))))"
attr title "queue bit length"
attr unit b
vector 50 SingleCell_Standalone.iUpf.ppp[0].ppp rxPkOk:vector(packetBytes) ETV
attr interpolationmode none
attr recordingmode vector(packetBytes)
attr source rxPkOk
attr title "packets received OK, packetBytes"
vector 51 SingleCell_Standalone.iUpf.ppp[0].ppp passedUpPk:vector(packetBytes) ETV
attr interpolationmode none
attr recordingmode vector(packetBytes)
attr source packetSentToUpper
attr title "packets passed to higher layer, packetBytes"
vector 52 SingleCell_Standalone.iUpf.ppp[1].queue incomingPacketLengths:vector ETV
attr interpolationmode none
attr recordingmode vector
attr source packetLength(packetPushStarted)
attr title "incoming packet lengths"
attr unit b
vector 53 SingleCell_Standalone.iUpf.ppp[1].queue incomingDataRate:vector ETV
attr interpolationmode linear
attr recordingmode vector
attr source throughput(packetPushStarted)
attr title "incoming datarate"
attr unit bps
vector 54 SingleCell_Standalone.iUpf.ppp[1].queue queueingTime:vector ETV
attr interpolationmode none
attr recordingmode vector
attr source queueingTime(packetPulled)
attr title "queueing times"
attr unit s
vector 55 SingleCell_Standalone.iUpf.ppp[1].queue outgoingPacketLengths:vector ETV
attr interpolationmode none
attr recordingmode vector
attr source packetLength(packetPulled)
attr title "outgoing packet lengths"
attr unit b
vector 56 SingleCell_Standalone.iUpf.ppp[1].queue outgoingDataRate:vector ETV
attr interpolationmode linear
attr recordingmode vector
attr source throughput(packetPulled)
attr title "outgoing datarate"
attr unit bps
vector 57 SingleCell_Standalone.iUpf.ppp[1].ppp transmissionState:vector ETV
attr interpolationmode sample-hold
attr recordingmode vector
attr source transmissionStateChanged
attr title "tx state"
vector 58 SingleCell_Standalone.iUpf.ppp[1].ppp txPk:vector(packetBytes) ETV
attr interpolationmode none
attr recordingmode vector(packetBytes)
attr source packetSentToLower
attr title "packets transmitted, packetBytes"
vector 59 SingleCell_Standalone.iUpf.ppp[1].queue queueLength:vector ETV
attr autoWarmupFilter false
attr interpolationmode sample-hold
attr recordingmode vector
attr source "warmup(atomic(constant0(packetPushEnded) + count(packetPushStarted) - count(packetPulled) - count(packetRemoved) - count(packetDropped)))"
attr title "queue length"
attr unit pk
vector 60 SingleCell_Standalone.iUpf.ppp[1].queue queueBitLength:vector ETV
attr autoWarmupFilter false
attr interpolationmode sample-hold
attr recordingmode vector
attr source "warmup(atomic(constant0(packetPushEnded) + sum(packetLength(packetPushStarted)) - sum(packetLength(packetPulled)) - sum(packetLength(packetRemoved)) - sum(packetLength(packetDropped))))"
attr title "queue bit length"
attr unit b
vector 61 SingleCell_Standalone.gnb.pppIf.ppp rxPkOk:vector(packetBytes) ETV
attr interpolationmode none
attr recordingmode vector(packetBytes)
attr source rxPkOk
attr title "packets received OK, packetBytes"
vector 62 SingleCell_Standalone.gnb.pppIf.ppp passedUpPk:vector(packetBytes) ETV
attr interpolationmode none
attr recordingmode vector(packetBytes)
attr source packetSentToUpper
attr title "packets passed to higher layer, packetBytes"
vector 63 SingleCell_Standalone.gnb.udp packetReceived:vector(packetBytes) ETV
attr interpolationmode none
attr recordingmode vector(packetBytes)
attr source packetReceived
attr title "packets received, packetBytes"
vector 64 SingleCell_Standalone.gnb.cellularNic.pdcpRrc receivedPacketFromUpperLayer:vector(packetBytes) ETV
attr interpolationmode none
attr recordingmode vector(packetBytes)
attr source receivedPacketFromUpperLayer
vector 65 SingleCell_Standalone.gnb.cellularNic.pdcpRrc sentPacketToLowerLayer:vector(packetBytes) ETV
attr interpolationmode none
attr recordingmode vector(packetBytes)
attr source sentPacketToLowerLayer
vector 66 SingleCell_Standalone.gnb.cellularNic.rlc.um receivedPacketFromUpperLayer:vector(packetBytes) ETV
attr interpolationmode none
attr recordingmode vector(packetBytes)
attr source receivedPacketFromUpperLayer
vector 67 SingleCell_Standalone.gnb.cellularNic.mac receivedPacketFromUpperLayer:vector(packetBytes) ETV
attr interpolationmode none
attr recordingmode vector(packetBytes)
attr source receivedPacketFromUpperLayer
vector 68 SingleCell_Standalone.gnb.cellularNic.mac sentPacketToUpperLayer:vector(packetBytes) ETV
attr interpolationmode none
attr recordingmode vector(packetBytes)
attr source sentPacketToUpperLayer
vector 69 SingleCell_Standalone.gnb.cellularNic.rlc.um rlcPacketLossDl:vector ETV
attr recordingmode vector
attr source rlcPacketLossDl
attr title "rlc Packet Loss"
attr unit ""
vector 70 SingleCell_Standalone.gnb.cellularNic.rlc.um sentPacketToLowerLayer:vector(packetBytes) ETV
attr interpolationmode none
attr recordingmode vector(packetBytes)
attr source sentPacketToLowerLayer
vector 71 SingleCell_Standalone.gnb.cellularNic.mac sentPacketToLowerLayer:vector(packetBytes) ETV
attr interpolationmode none
attr recordingmode vector(packetBytes)
attr source sentPacketToLowerLayer
vector 72 SingleCell_Standalone.ue[0].cellularNic.nrChannelModel[0] measuredSinrUl:vector ETV
attr recordingmode vector
attr source measuredSinrUl
attr title "SINR measured at feedback computation, UL"
attr unit dB
vector 73 SingleCell_Standalone.ue[0].cellularNic.nrChannelModel[0] measuredSinrDl:vector ETV
attr recordingmode vector
attr source measuredSinrDl
attr title "SINR measured at feedback computation, DL"
attr unit dB
vector 74 SingleCell_Standalone.gnb.cellularNic.mac receivedPacketFromLowerLayer:vector(packetBytes) ETV
attr interpolationmode none
attr recordingmode vector(packetBytes)
attr source receivedPacketFromLowerLayer
vector 75 SingleCell_Standalone.ue[0].cellularNic.nrPhy averageCqiDl:vector ETV
attr recordingmode vector
attr source averageCqiDl
attr title "Average Cqi reported in DL"
attr unit cqi
vector 76 SingleCell_Standalone.ue[0].cellularNic.nrChannelModel[0] distance:vector ETV
attr recordingmode vector
attr source distance
attr title "distance between UE and serving base station"
attr unit meters
vector 77 SingleCell_Standalone.ue[0].cellularNic.nrChannelModel[0] rcvdSinrDl:vector ETV
attr recordingmode vector
attr source rcvdSinrDl
attr title "SINR measured at packet reception, DL"
attr unit dB
vector 78 SingleCell_Standalone.ue[0].cellularNic.nrMac receivedPacketFromLowerLayer:vector(packetBytes) ETV
attr interpolationmode none
attr recordingmode vector(packetBytes)
attr source receivedPacketFromLowerLayer
vector 79 SingleCell_Standalone.ue[0].cellularNic.nrMac sentPacketToLowerLayer:vector(packetBytes) ETV
attr interpolationmode none
attr recordingmode vector(packetBytes)
attr source sentPacketToLowerLayer
vector 80 SingleCell_Standalone.gnb.cellularNic.mac macDelayDl:vector ETV
attr recordingmode vector
attr source macDelayDl
attr title "Delay at the MAC layer UL"
attr unit s
vector 81 SingleCell_Standalone.ue[0].cellularNic.nrMac sentPacketToUpperLayer:vector(packetBytes) ETV
attr interpolationmode none
attr recordingmode vector(packetBytes)
attr source sentPacketToUpperLayer
vector 82 SingleCell_Standalone.ue[0].cellularNic.nrRlc.um receivedPacketFromLowerLayer:vector(packetBytes) ETV
attr interpolationmode none
attr recordingmode vector(packetBytes)
attr source receivedPacketFromLowerLayer
vector 83 SingleCell_Standalone.ue[0].cellularNic.nrRlc.um rlcPduThroughputDl:vector ETV
attr recordingmode vector
attr source rlcPduThroughputDl
attr title "Throughput at the rlc layer DL"
attr unit Bps
vector 84 SingleCell_Standalone.ue[0].cellularNic.nrRlc.um rlcPduDelayDl:vector ETV
attr recordingmode vector
attr source rlcPduDelayDl
attr title "Delay at the rlc layer UL"
attr unit s
vector 85 SingleCell_Standalone.ue[0].cellularNic.nrRlc.um rlcPduPacketLossDl:vector ETV
attr recordingmode vector
attr source rlcPduPacketLossDl
attr title "rlc Packet Loss"
attr unit ""
vector 86 SingleCell_Standalone.ue[0].cellularNic.nrRlc.um rlcThroughputDl:vector ETV
attr recordingmode vector
attr source rlcThroughputDl
attr title "Throughput at the rlc layer DL"
attr unit Bps
vector 87 SingleCell_Standalone.ue[0].cellularNic.nrRlc.um rlcPacketLossDl:vector ETV
attr recordingmode vector
attr source rlcPacketLossDl
attr title "rlc Packet Loss"
attr unit ""
vector 88 SingleCell_Standalone.ue[0].cellularNic.nrRlc.um rlcPacketLossTotal:vector ETV
attr recordingmode vector
attr source rlcPacketLossTotal
attr title "rlc Packet Loss"
attr unit ""
vector 89 SingleCell_Standalone.ue[0].cellularNic.nrRlc.um rlcDelayDl:vector ETV
attr recordingmode vector
attr source rlcDelayDl
attr title "Delay at the rlc layer DL"
attr unit s
vector 90 SingleCell_Standalone.ue[0].cellularNic.nrRlc.um sentPacketToUpperLayer:vector(packetBytes) ETV
attr interpolationmode none
attr recordingmode vector(packetBytes)
attr source sentPacketToUpperLayer
vector 91 SingleCell_Standalone.ue[0].cellularNic.pdcpRrc receivedPacketFromLowerLayer:vector(packetBytes) ETV
attr interpolationmode none
attr recordingmode vector(packetBytes)
attr source receivedPacketFromLowerLayer
vector 92 SingleCell_Standalone.ue[0].cellularNic.pdcpRrc sentPacketToUpperLayer:vector(packetBytes) ETV
attr interpolationmode none
attr recordingmode vector(packetBytes)
attr source sentPacketToUpperLayer
vector 93 SingleCell_Standalone.ue[0].udp packetReceived:vector(packetBytes) ETV
attr interpolationmode none
attr recordingmode vector(packetBytes)
attr source packetReceived
attr title "packets received, packetBytes"
vector 94 SingleCell_Standalone.ue[0].app[0] cbrReceivedBytes:vector ETV
attr recordingmode vector
attr source cbrReceivedBytesSignal
attr title "Bytes received at the application level"
attr unit Bps
vector 95 SingleCell_Standalone.ue[0].app[0] cbrFrameDelay:vector ETV
attr recordingmode vector
attr source cbrFrameDelaySignal
attr title "Cbr Frame Delay"
attr unit s
vector 96 SingleCell_Standalone.ue[0].app[0] cbrRcvdPkt:vector ETV
attr recordingmode vector
attr source cbrRcvdPkt
attr title "Received packet ID"
attr unit ""
vector 97 SingleCell_Standalone.ue[0].cellularNic.nrMac harqErrorRate_1st_Dl:vector ETV
attr recordingmode vector
attr source harqErrorRate_1st_Dl
attr title "Harq Error Rate Dl (1st tx)"
attr unit ""
vector 98 SingleCell_Standalone.ue[0].cellularNic.nrMac harqErrorRateDl:vector ETV
attr recordingmode vector
attr source harqErrorRateDl
attr title "Harq Error Rate Dl"
attr unit ""
vector 99 SingleCell_Standalone.ue[0].cellularNic.nrMac harqTxAttemptsDl:vector ETV
attr recordingmode vector
attr source harqTxAttemptsDl
attr title "Harq Tx Attempts Dl"
attr unit ""
vector 100 SingleCell_Standalone.server.app[0] cbrGeneratedThroughtput:vector ETV
attr recordingmode vector
attr source cbrGeneratedThroughtputSignal
attr title "Throughput generated by the application"
attr unit Bps
0	0	1	0
1	0	1	0
2	0	1	0
3	0	1	0
4	0	1	0
5	0	1	0
6	0	1	0
7	0	1	0
8	0	1	0
9	0	1	0
9	10276	1.00246430857	1
9	10381	1.01246430857	2
9	10487	1.02246430857	3
9	10590	1.03246430857	4
9	10695	1.04246430857	5
9	10802	1.05246430857	6
9	10905	1.06246430857	7
9	11010	1.07246430857	8
9	11116	1.08246430857	9
9	11219	1.09246430857	10
9	11324	1.10246430857	11
9	11430	1.11246430857	12
9	11533	1.12246430857	13
9	11638	1.13246430857	14
9	11744	1.14246430857	15
9	11847	1.15246430857	16
9	11952	1.16246430857	17
9	12058	1.17246430857	18
9	12161	1.18246430857	19
9	12266	1.19246430857	20
9	12372	1.20246430857	21
9	12475	1.21246430857	22
9	12580	1.22246430857	23
9	12686	1.23246430857	24
9	12789	1.24246430857	25
9	12894	1.25246430857	26
9	13000	1.26246430857	27
9	13103	1.27246430857	28
9	13208	1.28246430857	29
9	13314	1.29246430857	30
9	13417	1.30246430857	31
9	13522	1.31246430857	32
9	13628	1.32246430857	33
9	13731	1.33246430857	34
9	13836	1.34246430857	35
9	13942	1.35246430857	36
9	14045	1.36246430857	37
9	14150	1.37246430857	38
9	14256	1.38246430857	39
9	14359	1.39246430857	40
9	14464	1.40246430857	41
9	14570	1.41246430857	42
9	14673	1.42246430857	43
9	14778	1.43246430857	44
9	14884	1.44246430857	45
9	14987	1.45246430857	46
9	15092	1.46246430857	47
9	15198	1.47246430857	48
9	15301	1.48246430857	49
9	15406	1.49246430857	50
9	15512	1.50246430857	51
9	15615	1.51246430857	52
9	15720	1.52246430857	53
9	15826	1.53246430857	54
9	15929	1.54246430857	55
9	16034	1.55246430857	56
9	16140	1.56246430857	57
9	16243	1.57246430857	58
9	16348	1.58246430857	59
9	16454	1.59246430857	60
9	16557	1.60246430857	61
9	16662	1.61246430857	62
9	16768	1.62246430857	63
9	16871	1.63246430857	64
9	16976	1.64246430857	65
9	17082	1.65246430857	66
9	17185	1.66246430857	67
9	17290	1.67246430857	68
9	17396	1.68246430857	69
9	17499	1.69246430857	70
9	17604	1.70246430857	71
9	17710	1.71246430857	72
9	17813	1.72246430857	73
9	17918	1.73246430857	74
9	18024	1.74246430857	75
9	18127	1.75246430857	76
9	18232	1.76246430857	77
9	18338	1.77246430857	78
9	18441	1.78246430857	79
9	18546	1.79246430857	80
9	18652	1.80246430857	81
9	18755	1.81246430857	82
9	18860	1.82246430857	83
9	18966	1.83246430857	84
9	19069	1.84246430857	85
9	19174	1.85246430857	86
9	19280	1.86246430857	87
9	19383	1.87246430857	88
9	19488	1.88246430857	89
9	19594	1.89246430857	90
9	19697	1.90246430857	91
9	19802	1.91246430857	92
9	19908	1.92246430857	93
9	20011	1.93246430857	94
9	20116	1.94246430857	95
9	20222	1.95246430857	96
9	20325	1.96246430857	97
9	20430	1.97246430857	98
9	20536	1.98246430857	99
9	20639	1.99246430857	100
9	20744	2.00246430857	101
9	20850	2.01246430857	102
9	20953	2.02246430857	103
9	21058	2.03246430857	104
9	21164	2.04246430857	105
9	21268	2.05246430857	106
9	21373	2.06246430857	107
9	21479	2.07246430857	108
9	21582	2.08246430857	109
9	21687	2.09246430857	110
9	21793	2.10246430857	111
9	21896	2.11246430857	112
9	22001	2.12246430857	113
9	22107	2.13246430857	114
9	22210	2.14246430857	115
9	22315	2.15246430857	116
9	22421	2.16246430857	117
9	22524	2.17246430857	118
9	22629	2.18246430857	119
9	22735	2.19246430857	120
9	22838	2.20246430857	121
9	22943	2.21246430857	122
9	23049	2.22246430857	123
9	23152	2.23246430857	124
9	23257	2.24246430857	125
9	23363	2.25246430857	126
9	23466	2.26246430857	127
9	23571	2.27246430857	128
9	23677	2.28246430857	129
9	23780	2.29246430857	130
9	23885	2.30246430857	131
9	23991	2.31246430857	132
9	24094	2.32246430857	133
9	24199	2.33246430857	134
9	24305	2.34246430857	135
9	24408	2.35246430857	136
9	24513	2.36246430857	137
9	24619	2.37246430857	138
9	24722	2.38246430857	139
9	24827	2.39246430857	140
9	24933	2.40246430857	141
9	25036	2.41246430857	142
9	25141	2.42246430857	143
9	25247	2.43246430857	144
9	25350	2.44246430857	145
9	25455	2.45246430857	146
9	25561	2.46246430857	147
9	25664	2.47246430857	148
9	25769	2.48246430857	149
9	25875	2.49246430857	150
9	25978	2.50246430857	151
9	26083	2.51246430857	152
9	26189	2.52246430857	153
9	26292	2.53246430857	154
9	26397	2.54246430857	155
9	26503	2.55246430857	156
9	26606	2.56246430857	157
9	26711	2.57246430857	158
9	26817	2.58246430857	159
9	26920	2.59246430857	160
9	27025	2.60246430857	161
9	27131	2.61246430857	162
9	27234	2.62246430857	163
9	27339	2.63246430857	164
9	27445	2.64246430857	165
9	27548	2.65246430857	166
9	27653	2.66246430857	167
9	27759	2.67246430857	168
9	27862	2.68246430857	169
9	27967	2.69246430857	170
9	28073	2.70246430857	171
9	28176	2.71246430857	172
9	28281	2.72246430857	173
9	28387	2.73246430857	174
9	28490	2.74246430857	175
9	28595	2.75246430857	176
9	28701	2.76246430857	177
9	28804	2.77246430857	178
9	28909	2.78246430857	179
9	29015	2.79246430857	180
9	29118	2.80246430857	181
9	29223	2.81246430857	182
9	29329	2.82246430857	183
9	29432	2.83246430857	184
9	29537	2.84246430857	185
9	29643	2.85246430857	186
9	29746	2.86246430857	187
9	29851	2.87246430857	188
9	29957	2.88246430857	189
9	30060	2.89246430857	190
9	30165	2.90246430857	191
9	30271	2.91246430857	192
9	30374	2.92246430857	193
9	30479	2.93246430857	194
9	30585	2.94246430857	195
9	30688	2.95246430857	196
9	30793	2.96246430857	197
9	30899	2.97246430857	198
9	31002	2.98246430857	199