version 3
run General-0-20230228-09:56:30-219716
attr configname General
attr datetime 20230228-09:56:30
attr datetimef 20230228-095630
attr experiment General
attr inifile omnetpp.ini
attr iterationvars ""
attr iterationvarsd ""
attr iterationvarsf ""
attr measurement ""
attr network simu5g.simulations.NR.carsdrones.Highway2
attr processid 219716
attr repetition 0
attr replication #0
attr resultdir results
attr runnumber 0
attr seedset 0
config image-path ../../../images:../../../../inet4.4/images:../../../../veins-veins-5.2/subprojects/veins_inet/images:../../../../veins-veins-5.2/images
config cmdenv-express-mode true
config cmdenv-autoflush true
config image-path ../../images
config network simu5g.simulations.NR.carsdrones.Highway2
config debug-on-errors false
config print-undisposed false
config sim-time-limit 100s
config **.sctp.**.scalar-recording false
config **.sctp.**.vector-recording false
config **.routingRecorder.enabled false
config *.playgroundSizeX 20000m
config *.playgroundSizeY 20000m
config *.playgroundSizeZ 50m
config *.veinsManager.host "\"localhost\""
config *.veinsManager.moduleType "\"simu5g.nodes.cars.NRCar\""
config *.veinsManager.moduleName "\"car\""
config *.veinsManager.launchConfig "xmldoc(\"heterogeneous.launchd.xml\")"
config *.veinsManager.updateInterval 0.1s
config *.car[*].mobility.typename VeinsInetMobility
config **.numBands 25
config **.ueTxPower 26
config **.eNodeBTxPower 46
config *.car[*].cellularNic.nrPhy.dynamicCellAssociation true
config *.car[*].masterId 0
config *.car[*].macCellId 0
config *.car[*].nrMasterId 1
config *.car[*].nrMacCellId 1
config *.drone[*].cellularNic.nrPhy.dynamicCellAssociation true
config *.drone[*].masterId 0
config *.drone[*].macCellId 0
config *.drone[*].nrMasterId 1
config *.drone[*].nrMacCellId 1
config **.gNodeB1.macCellId 1
config **.gNodeB1.macNodeId 1
config **.gNodeB2.macCellId 2
config **.gNodeB2.macNodeId 2
config *.car[*].cellularNic.nrPhy.enableHandover true
config *.gNodeB*.cellularNic.phy.enableHandover true
config *.gNodeB*.cellularNic.phy.handoverLatency 50ms
config *.gNodeB*.cellInfo.broadcastMessageInterval 1s

vector 0 Highway2.server.ppp[0].ppp transmissionState:vector ETV
attr interpolationmode sample-hold
attr recordingmode vector
attr source transmissionStateChanged
attr title "tx state"
vector 1 Highway2.server.udp passedUpPk:vector(count) ETV
attr interpolationmode none
attr recordingmode vector(count)
attr source packetSentToUpper
attr title "packets passed up, count"
vector 2 Highway2.server.udp droppedPkWrongPort:vector(count) ETV
attr interpolationmode none
attr recordingmode vector(count)
attr source packetDropReasonIsNoPortFound(packetDropped)
attr title "packets dropped (wrong port), count"
vector 3 Highway2.server.udp droppedPkBadChecksum:vector(count) ETV
attr interpolationmode none
attr recordingmode vector(count)
attr source packetDropReasonIsIncorrectlyReceived(packetDropped)
attr title "packets dropped (checksum error), count"
vector 4 Highway2.router.ppp[0].ppp transmissionState:vector ETV
attr interpolationmode sample-hold
attr recordingmode vector
attr source transmissionStateChanged
attr title "tx state"
vector 5 Highway2.router.ppp[1].ppp transmissionState:vector ETV
attr interpolationmode sample-hold
attr recordingmode vector
attr source transmissionStateChanged
attr title "tx state"
vector 6 Highway2.upf.ppp[0].ppp transmissionState:vector ETV
attr interpolationmode sample-hold
attr recordingmode vector
attr source transmissionStateChanged
attr title "tx state"
vector 7 Highway2.upf.ppp[1].ppp transmissionState:vector ETV
attr interpolationmode sample-hold
attr recordingmode vector
attr source transmissionStateChanged
attr title "tx state"
vector 8 Highway2.upf.pppIf.ppp transmissionState:vector ETV
attr interpolationmode sample-hold
attr recordingmode vector
attr source transmissionStateChanged
attr title "tx state"
vector 9 Highway2.upf.udp passedUpPk:vector(count) ETV
attr interpolationmode none
attr recordingmode vector(count)
attr source packetSentToUpper
attr title "packets passed up, count"
vector 10 Highway2.upf.udp droppedPkWrongPort:vector(count) ETV
attr interpolationmode none
attr recordingmode vector(count)
attr source packetDropReasonIsNoPortFound(packetDropped)
attr title "packets dropped (wrong port), count"
vector 11 Highway2.upf.udp droppedPkBadChecksum:vector(count) ETV
attr interpolationmode none
attr recordingmode vector(count)
attr source packetDropReasonIsIncorrectlyReceived(packetDropped)
attr title "packets dropped (checksum error), count"
vector 12 Highway2.gNodeB1.pppIf.ppp transmissionState:vector ETV
attr interpolationmode sample-hold
attr recordingmode vector
attr source transmissionStateChanged
attr title "tx state"
vector 13 Highway2.gNodeB1.x2ppp[0].ppp transmissionState:vector ETV
attr interpolationmode sample-hold
attr recordingmode vector
attr source transmissionStateChanged
attr title "tx state"
vector 14 Highway2.gNodeB1.pppMEHostIf.ppp transmissionState:vector ETV
attr interpolationmode sample-hold
attr recordingmode vector
attr source transmissionStateChanged
attr title "tx state"
vector 15 Highway2.gNodeB1.udp passedUpPk:vector(count) ETV
attr interpolationmode none
attr recordingmode vector(count)
attr source packetSentToUpper
attr title "packets passed up, count"
vector 16 Highway2.gNodeB1.udp droppedPkWrongPort:vector(count) ETV
attr interpolationmode none
attr recordingmode vector(count)
attr source packetDropReasonIsNoPortFound(packetDropped)
attr title "packets dropped (wrong port), count"
vector 17 Highway2.gNodeB1.udp droppedPkBadChecksum:vector(count) ETV
attr interpolationmode none
attr recordingmode vector(count)
attr source packetDropReasonIsIncorrectlyReceived(packetDropped)
attr title "packets dropped (checksum error), count"
vector 18 Highway2.gNodeB2.pppIf.ppp transmissionState:vector ETV
attr interpolationmode sample-hold
attr recordingmode vector
attr source transmissionStateChanged
attr title "tx state"
vector 19 Highway2.gNodeB2.x2ppp[0].ppp transmissionState:vector ETV
attr interpolationmode sample-hold
attr recordingmode vector
attr source transmissionStateChanged
attr title "tx state"
vector 20 Highway2.gNodeB2.pppMEHostIf.ppp transmissionState:vector ETV
attr interpolationmode sample-hold
attr recordingmode vector
attr source transmissionStateChanged
attr title "tx state"
vector 21 Highway2.gNodeB2.udp passedUpPk:vector(count) ETV
attr interpolationmode none
attr recordingmode vector(count)
attr source packetSentToUpper
attr title "packets passed up, count"
vector 22 Highway2.gNodeB2.udp droppedPkWrongPort:vector(count) ETV
attr interpolationmode none
attr recordingmode vector(count)
attr source packetDropReasonIsNoPortFound(packetDropped)
attr title "packets dropped (wrong port), count"
vector 23 Highway2.gNodeB2.udp droppedPkBadChecksum:vector(count) ETV
attr interpolationmode none
attr recordingmode vector(count)
attr source packetDropReasonIsIncorrectlyReceived(packetDropped)
attr title "packets dropped (checksum error), count"
vector 24 Highway2.drone[0].udp passedUpPk:vector(count) ETV
attr interpolationmode none
attr recordingmode vector(count)
attr source packetSentToUpper
attr title "packets passed up, count"
vector 25 Highway2.drone[0].udp droppedPkWrongPort:vector(count) ETV
attr interpolationmode none
attr recordingmode vector(count)
attr source packetDropReasonIsNoPortFound(packetDropped)
attr title "packets dropped (wrong port), count"
vector 26 Highway2.drone[0].udp droppedPkBadChecksum:vector(count) ETV
attr interpolationmode none
attr recordingmode vector(count)
attr source packetDropReasonIsIncorrectlyReceived(packetDropped)
attr title "packets dropped (checksum error), count"
vector 27 Highway2.drone[0].cellularNic.phy servingCell:vector ETV
attr recordingmode vector
attr source servingCell
attr title "ID of the serving eNodeB for the UE"
attr unit ""
vector 28 Highway2.drone[0].cellularNic.nrChannelModel[0] distance:vector ETV
attr recordingmode vector
attr source distance
attr title "distance between UE and serving base station"
attr unit meters
vector 29 Highway2.drone[0].cellularNic.nrPhy servingCell:vector ETV
attr recordingmode vector
attr source servingCell
attr title "ID of the serving eNodeB for the UE"
attr unit ""
vector 30 Highway2.gNodeB1.cellularNic.mac avgServedBlocksUl:vector ETV
attr recordingmode vector
attr source avgServedBlocksUl
attr title "Avg Served Blocks Ul"
attr unit blocks
vector 31 Highway2.gNodeB1.cellularNic.mac avgServedBlocksDl:vector ETV
attr recordingmode vector
attr source avgServedBlocksDl
attr title "Avg Served Blocks Dl"
attr unit blocks
vector 32 Highway2.gNodeB2.cellularNic.mac avgServedBlocksUl:vector ETV
attr recordingmode vector
attr source avgServedBlocksUl
attr title "Avg Served Blocks Ul"
attr unit blocks
vector 33 Highway2.gNodeB2.cellularNic.mac avgServedBlocksDl:vector ETV
attr recordingmode vector
attr source avgServedBlocksDl
attr title "Avg Served Blocks Dl"
attr unit blocks
vector 34 Highway2.drone[0].cellularNic.nrChannelModel[0] measuredSinrUl:vector ETV
attr recordingmode vector
attr source measuredSinrUl
attr title "SINR measured at feedback computation, UL"
attr unit dB
vector 35 Highway2.drone[0].cellularNic.nrChannelModel[0] measuredSinrDl:vector ETV
attr recordingmode vector
attr source measuredSinrDl
attr title "SINR measured at feedback computation, DL"
attr unit dB
vector 36 Highway2.gNodeB1.cellularNic.mac receivedPacketFromLowerLayer:vector(packetBytes) ETV
attr interpolationmode none
attr recordingmode vector(packetBytes)
attr source receivedPacketFromLowerLayer
vector 37 Highway2.car[0].udp passedUpPk:vector(count) ETV
attr interpolationmode none
attr recordingmode vector(count)
attr source packetSentToUpper
attr title "packets passed up, count"
vector 38 Highway2.car[0].udp droppedPkWrongPort:vector(count) ETV
attr interpolationmode none
attr recordingmode vector(count)
attr source packetDropReasonIsNoPortFound(packetDropped)
attr title "packets dropped (wrong port), count"
vector 39 Highway2.car[0].udp droppedPkBadChecksum:vector(count) ETV
attr interpolationmode none
attr recordingmode vector(count)
attr source packetDropReasonIsIncorrectlyReceived(packetDropped)
attr title "packets dropped (checksum error), count"
vector 40 Highway2.car[0].cellularNic.phy servingCell:vector ETV
attr recordingmode vector
attr source servingCell
attr title "ID of the serving eNodeB for the UE"
attr unit ""
vector 41 Highway2.car[0].cellularNic.nrChannelModel[0] distance:vector ETV
attr recordingmode vector
attr source distance
attr title "distance between UE and serving base station"
attr unit meters
vector 42 Highway2.car[0].cellularNic.nrPhy servingCell:vector ETV
attr recordingmode vector
attr source servingCell
attr title "ID of the serving eNodeB for the UE"
attr unit ""
vector 43 Highway2.car[0].cellularNic.nrChannelModel[0] measuredSinrUl:vector ETV
attr recordingmode vector
attr source measuredSinrUl
attr title "SINR measured at feedback computation, UL"
attr unit dB
vector 44 Highway2.car[0].cellularNic.nrChannelModel[0] measuredSinrDl:vector ETV
attr recordingmode vector
attr source measuredSinrDl
attr title "SINR measured at feedback computation, DL"
attr unit dB
vector 45 Highway2.car[1].udp passedUpPk:vector(count) ETV
attr interpolationmode none
attr recordingmode vector(count)
attr source packetSentToUpper
attr title "packets passed up, count"
vector 46 Highway2.car[1].udp droppedPkWrongPort:vector(count) ETV
attr interpolationmode none
attr recordingmode vector(count)
attr source packetDropReasonIsNoPortFound(packetDropped)
attr title "packets dropped (wrong port), count"
vector 47 Highway2.car[1].udp droppedPkBadChecksum:vector(count) ETV
attr interpolationmode none
attr recordingmode vector(count)
attr source packetDropReasonIsIncorrectlyReceived(packetDropped)
attr title "packets dropped (checksum error), count"
vector 48 Highway2.car[1].cellularNic.phy servingCell:vector ETV
attr recordingmode vector
attr source servingCell
attr title "ID of the serving eNodeB for the UE"
attr unit ""
vector 49 Highway2.car[1].cellularNic.nrChannelModel[0] distance:vector ETV
attr recordingmode vector
attr source distance
attr title "distance between UE and serving base station"
attr unit meters
vector 50 Highway2.car[1].cellularNic.nrPhy servingCell:vector ETV
attr recordingmode vector
attr source servingCell
attr title "ID of the serving eNodeB for the UE"
attr unit ""
vector 51 Highway2.car[1].cellularNic.nrChannelModel[0] measuredSinrUl:vector ETV
attr recordingmode vector
attr source measuredSinrUl
attr title "SINR measured at feedback computation, UL"
attr unit dB
vector 52 Highway2.car[1].cellularNic.nrChannelModel[0] measuredSinrDl:vector ETV
attr recordingmode vector
attr source measuredSinrDl
attr title "SINR measured at feedback computation, DL"
attr unit dB
vector 53 Highway2.car[2].udp passedUpPk:vector(count) ETV
attr interpolationmode none
attr recordingmode vector(count)
attr source packetSentToUpper
attr title "packets passed up, count"
vector 54 Highway2.car[2].udp droppedPkWrongPort:vector(count) ETV
attr interpolationmode none
attr recordingmode vector(count)
attr source packetDropReasonIsNoPortFound(packetDropped)
attr title "packets dropped (wrong port), count"
vector 55 Highway2.car[2].udp droppedPkBadChecksum:vector(count) ETV
attr interpolationmode none
attr recordingmode vector(count)
attr source packetDropReasonIsIncorrectlyReceived(packetDropped)
attr title "packets dropped (checksum error), count"
vector 56 Highway2.car[2].cellularNic.phy servingCell:vector ETV
attr recordingmode vector
attr source servingCell
attr title "ID of the serving eNodeB for the UE"
attr unit ""
vector 57 Highway2.car[2].cellularNic.nrChannelModel[0] distance:vector ETV
attr recordingmode vector
attr source distance
attr title "distance between UE and serving base station"
attr unit meters
vector 58 Highway2.car[2].cellularNic.nrPhy servingCell:vector ETV
attr recordingmode vector
attr source servingCell
attr title "ID of the serving eNodeB for the UE"
attr unit ""
vector 59 Highway2.car[2].cellularNic.nrChannelModel[0] measuredSinrUl:vector ETV
attr recordingmode vector
attr source measuredSinrUl
attr title "SINR measured at feedback computation, UL"
attr unit dB
vector 60 Highway2.car[2].cellularNic.nrChannelModel[0] measuredSinrDl:vector ETV
attr recordingmode vector
attr source measuredSinrDl
attr title "SINR measured at feedback computation, DL"
attr unit dB
0	0	0	0
1	0	0	0
2	0	0	0
3	0	0	0
4	0	0	0
5	0	0	0
6	0	0	0
7	0	0	0
8	0	0	0
9	0	0	0
10	0	0	0
11	0	0	0
12	0	0	0
13	0	0	0
14	0	0	0
15	0	0	0
16	0	0	0
17	0	0	0
18	0	0	0
19	0	0	0
20	0	0	0
21	0	0	0
22	0	0	0
23	0	0	0
24	0	0	0
25	0	0	0
26	0	0	0
27	0	0	0
28	0	0	178.75122377203
28	0	0	472.74728978599
28	14	0	178.75122377203
28	9102	1	178.75122377203
28	18461	2	178.75122377203
28	27818	3	178.75122377203
28	37174	4	178.75122377203
28	46533	5	178.75122377203
28	58026	6	178.75122377203
28	70051	7	178.75122377203
28	82081	8	178.75122377203
28	94110	9	178.75122377203
28	106135	10	178.75122377203
28	119233	11	178.75122377203
29	0	0	1
30	19	0.001	0
30	25	0.002	0
30	33	0.003	0
30	39	0.004	0
30	45	0.005	0
30	52	0.006	0
30	59	0.007	0
30	65	0.008	0
30	73	0.009	0
30	79	0.01	0
30	85	0.011	0
30	92	0.012	0
30	99	0.013	0
30	105	0.014	0
30	113	0.015	0
30	119	0.016	0
30	125	0.017	0
30	132	0.018	0
30	139	0.019	0
30	145	0.02	0
30	153	0.021	0
30	159	0.022	0
30	165	0.023	0
30	172	0.024	0
30	179	0.025	0
30	185	0.026	0
30	193	0.027	0
30	199	0.028	0
30	205	0.029	0
30	212	0.03	0
30	219	0.031	0
30	225	0.032	0
30	233	0.033	0
30	239	0.034	0
30	245	0.035	0
30	252	0.036	0
30	259	0.037	0
30	265	0.038	0
30	273	0.039	0
30	279	0.04	0
30	285	0.041	0
30	292	0.042	0
30	299	0.043	0
30	305	0.044	0
30	313	0.045	0
30	319	0.046	0
30	325	0.047	0
30	332	0.048	0
30	339	0.049	0
30	347	0.05	0
30	355	0.051	0
30	361	0.052	0
30	367	0.053	0
30	374	0.054	0
30	381	0.055	0
30	387	0.056	0
30	395	0.057	0
30	401	0.058	0
30	407	0.059	0
30	414	0.06	0
30	421	0.061	0
30	427	0.062	0
30	435	0.063	0
30	441	0.064	0
30	447	0.065	0
30	454	0.066	0
30	461	0.067	0
30	467	0.068	0
30	475	0.069	0
30	481	0.07	0
30	487	0.071	0
30	494	0.072	0
30	501	0.073	0
30	507	0.074	0
30	515	0.075	0
30	521	0.076	0
30	527	0.077	0
30	534	0.078	0
30	541	0.079	0
30	547	0.08	0
30	555	0.081	0
30	561	0.082	0
30	567	0.083	0
30	574	0.084	0
30	581	0.085	0
30	587	0.086	0
30	595	0.087	0
30	601	0.088	0
30	607	0.089	0
30	614	0.09	0
30	621	0.091	0
30	627	0.092	0
30	635	0.093	0
30	641	0.094	0
30	647	0.095	0
30	654	0.096	0
30	661	0.097	0
30	667	0.098	0
30	675	0.099	0
30	683	0.1	0
30	692	0.101	0
30	701	0.102	0
30	712	0.103	0
30	720	0.104	0
30	730	0.105	0
30	739	0.106	0
30	748	0.107	0
30	757	0.108	0
30	768	0.109	0
30	776	0.11	0
30	786	0.111	0
30	795	0.112	0
30	804	0.113	0
30	813	0.114	0
30	824	0.115	0
30	832	0.116	0
30	842	0.117	0
30	851	0.118	0
30	860	0.119	0
30	869	0.12	0
30	880	0.121	0
30	888	0.122	0
30	898	0.123	0
30	907	0.124	0
30	916	0.125	0
30	925	0.126	0
30	936	0.127	0
30	944	0.128	0
30	954	0.129	0
30	963	0.13	0
30	972	0.131	0
30	981	0.132	0
30	992	0.133	0
30	1000	0.134	0
30	1010	0.135	0
30	1019	0.136	0
30	1028	0.137	0
30	1037	0.138	0
30	1048	0.139	0
30	1056	0.14	0
30	1066	0.141	0
30	1075	0.142	0
30	1084	0.143	0
30	1093	0.144	0
30	1104	0.145	0
30	1112	0.146	0
30	1122	0.147	0
30	1131	0.148	0
30	1140	0.149	0
30	1149	0.15	0
30	1160	0.151	0
30	1168	0.152	0
30	1178	0.153	0
30	1187	0.154	0
30	1196	0.155	0
30	1205	0.156	0
30	1216	0.157	0
30	1224	0.158	0
30	1234	0.159	0
30	1243	0.16	0
30	1252	0.161	0
30	1261	0.162	0
30	1272	0.163	0
30	1280	0.164	0
30	1290	0.165	0
30	1299	0.166	0
30	1308	0.167	0
30	1317	0.168	0
30	1328	0.169	0
30	1336	0.17	0
30	1346	0.171	0
30	1355	0.172	0
30	1364	0.173	0
30	1373	0.174	0
30	1384	0.175	0
30	1392	0.176	0
30	1402	0.177	0
30	1411	0.178	0
30	1420	0.179	0
30	1429	0.18	0
30	1440	0.181	0
30	1448	0.182	0
30	1458	0.183	0
30	1467	0.184	0
30	1476	0.185	0
30	1485	0.186	0
30	1496	0.187	0
30	1504	0.188	0
30	1514	0.189	0
30	1523	0.19	0
30	1532	0.191	0
30	1541	0.192	0
30	1552	0.193	0
30	1560	0.194	0
30	1570	0.195	0
30	1579	0.196	0
30	1588	0.197	0
30	1597	0.198	0
30	1608	0.199	0
30	1617	0.2	0
30	1627	0.201	0
30	1636	0.202	0
30	1645	0.203	0
30	1654	0.204	0
30	1665	0.205	0
30	1673	0.206	0
30	1683	0.207	0
30	1692	0.208	0
30	1701	0.209	0
30	1710	0.21	0
30	1721	0.211	0
30	1729	0.212	0
30	1739	0.213	0
30	1748	0.214	0
30	1757	0.215	0
30	1766	0.216	0
30	1777	0.217	0
30	1785	0.218	0
30	1795	0.219	0
30	1804	0.22	0
30	1813	0.221	0
30	1822	0.222	0
30	1833	0.223	0
30	1841	0.224	0
30	1851	0.225	0
30	1860	0.226	0
30	1869	0.227	0
30	1878	0.228	0
30	1889	0.229	0
30	1897	0.23	0
30	1907	0.231	0
30	1916	0.232	0
30	1925	0.233	0
30	1934	0.234	0
30	1945	0.235	0
30	1953	0.236	0
30	1963	0.237	0
30	1972	0.238	0
30	1981	0.239	0
30	1990	0.24	0
30	2001	0.241	0
30	2009	0.242	0
30	2019	0.243	0
30	2028	0.244	0
30	2037	0.245	0
30	2046	0.246	0
30	2057	0.247	0
30	2065	0.248	0
30	2075	0.249	0
30	2084	0.25	0
30	2093	0.251	0
30	2102	0.252	0
30	2113	0.253	0
30	2121	0.254	0
30	2131	0.255	0
30	2140	0.256	0
30	2149	0.257	0
30	2158	0.258	0
30	2169	0.259	0
30	2177	0.26	0
30	2187	0.261	0
30	2196	0.262	0
30	2205	0.263	0
30	2214	0.264	0
30	2225	0.265	0
30	2233	0.266	0
30	2243	0.267	0
30	2252	0.268	0
30	2261	0.269	0
30	2270	0.27	0
30	2281	0.271	0
30	2289	0.272	0
30	2299	0.273	0
30	2308	0.274	0
30	2317	0.275	0
30	2326	0.276	0
30	2337	0.277	0
30	2345	0.278	0
30	2355	0.279	0
30	2364	0.28	0
30	2373	0.281	0
30	2382	0.282	0
30	2393	0.283	0
30	2401	0.284	0
30	2411	0.285	0
30	2420	0.286	0
30	2429	0.287	0
30	2438	0.288	0
30	2449	0.289	0
30	2457	0.29	0
30	2467	0.291	0
30	2476	0.292	0
30	2485	0.293	0
30	2494	0.294	0
30	2505	0.295	0
30	2513	0.296	0
30	2523	0.297	0
30	2532	0.298	0
30	2541	0.299	0
30	2551	0.3	0
30	2562	0.301	0
30	2570	0.302	0
30	2580	0.303	0
30	2589	0.304	0
30	2598	0.305	0
30	2607	0.306	0
30	2618	0.307	0
30	2626	0.308	0
30	2636	0.309	0
30	2645	0.31	0
30	2654	0.311	0
30	2663	0.312	0
30	2674	0.313	0
30	2682	0.314	0
30	2692	0.315	0
30	2701	0.316	0
30	2710	0.317	0
30	2719	0.318	0
30	2730	0.319	0
30	2738	0.32	0
30	2748	0.321	0
30	2757	0.322	0
30	2766	0.323	0
30	2775	0.324	0
30	2786	0.325	0
30	2794	0.326	0
30	2804	0.327	0
30	2813	0.328	0
30	2822	0.329	0
30	2831	0.33	0
30	2842	0.331	0
30	2850	0.332	0
30	2860	0.333	0
30	2869	0.334	0
30	2878	0.335	0
30	2887	0.336	0
30	2898	0.337	0
30	2906	0.338	0
30	2916	0.339	0
30	2925	0.34	0
30	2934	0.341	0
30	2943	0.342	0
30	2954	0.343	0
30	2962	0.344	0
30	2972	0.345	0
30	2981	0.346	0
30	2990	0.347	0
30	2999	0.348	0
30	3010	0.349	0
30	3018	0.35	0
30	3028	0.351	0
30	3037	0.352	0
30	3046	0.353	0
30	3055	0.354	0
30	3066	0.355	0
30	3074	0.356	0
30	3084	0.357	0
30	3093	0.358	0
30	3102	0.359	0
30	3111	0.36	0
30	3122	0.361	0
30	3130	0.362	0
30	3140	0.363	0
30	3149	0.364	0
30	3158	0.365	0
30	3167	0.366	0
30	3178	0.367	0
30	3186	0.368	0
30	3196	0.369	0
30	3205	0.37	0
30	3214	0.371	0
30	3223	0.372	0
30	3234	0.373	0
30	3242	0.374	0
30	3252	0.375	0
30	3261	0.376	0
30	3270	0.377	0
30	3279	0.378	0
30	3290	0.379	0
30	3298	0.38	0
30	3308	0.381	0
30	3317	0.382	0
30	3326	0.383	0
30	3335	0.384	0
30	3346	0.385	0
30	3354	0.386	0
30	3364	0.387	0
30	3373	0.388	0
30	3382	0.389	0
30	3391	0.39	0
30	3402	0.391	0
30	3410	0.392	0
30	3420	0.393	0
30	3429	0.394	0
30	3438	0.395	0
30	3447	0.396	0
30	3458	0.397	0
30	3466	0.398	0
30	3476	0.399	0
30	3486	0.4	0
30	3495	0.401	0
30	3504	0.402	0
30	3515	0.403	0
30	3523	0.404	0
30	3533	0.405	0
30	3542	0.406	0
30	3551	0.407	0
30	3560	0.408	0
30	3571	0.409	0
30	3579	0.41	0
30	3589	0.411	0
30	3598	0.412	0
30	3607	0.413	0
30	3616	0.414	0
30	3627	0.415	0
30	3635	0.416	0
30	3645	0.417	0
30	3654	0.418	0
30	3663	0.419	0
30	3672	0.42	0
30	3683	0.421	0
30	3691	0.422	0
30	3701	0.423	0
30	3710	0.424	0
30	3719	0.425	0
30	3728	0.426	0
30	3739	0.427	0
30	3747	0.428	0
30	3757	0.429	0
30	3766	0.43	0
30	3775	0.431	0
30	3784	0.432	0
30	3795	0.433	0
30	3803	0.434	0
30	3813	0.435	0
30	3822	0.436	0
30	3831	0.437	0
30	3840	0.438	0
30	3851	0.439	0
30	3859	0.44	0
30	3869	0.441	0
30	3878	0.442	0
30	3887	0.443	0
30	3896	0.444	0
30	3907	0.445	0
30	3915	0.446	0
30	3925	0.447	0
30	3934	0.448	0
30	3943	0.449	0
30	3952	0.45	0
30	3963	0.451	0
30	3971	0.452	0
30	3981	0.453	0
30	3990	0.454	0
30	3999	0.455	0
30	4008	0.456	0
30	4019	0.457	0
30	4027	0.458	0
30	4037	0.459	0
30	4046	0.46	0
30	4055	0.461	0
30	4064	0.462	0
30	4075	0.463	0
30	4083	0.464	0
30	4093	0.465	0
30	4102	0.466	0
30	4111	0.467	0
30	4120	0.468	0
30	4131	0.469	0
30	4139	0.47	0
30	4149	0.471	0
30	4158	0.472	0
30	4167	0.473	0
30	4176	0.474	0
30	4187	0.475	0
30	4195	0.476	0
30	4205	0.477	0
30	4214	0.478	0
30	4223	0.479	0
30	4232	0.48	0
30	4243	0.481	0
30	4251	0.482	0
30	4261	0.483	0
30	4270	0.484	0
30	4279	0.485	0
30	4288	0.486	0
30	4299	0.487	0
30	4307	0.488	0
30	4317	0.489	0
30	4326	0.49	0
30	4335	0.491	0
30	4344	0.492	0
30	4355	0.493	0
30	4363	0.494	0
30	4373	0.495	0
30	4382	0.496	0
30	4391	0.497	0
30	4400	0.498	0
30	4411	0.499	0
30	4420	0.5	0
30	4430	0.501	0
30	4439	0.502	0
30	4448	0.503	0
30	4457	0.504	0
30	4468	0.505	0
30	4476	0.506	0
30	4486	0.507	0
30	4495	0.508	0
30	4504	0.509	0
30	4513	0.51	0
30	4524	0.511	0
30	4532	0.512	0
30	4542	0.513	0
30	4551	0.514	0
30	4560	0.515	0
30	4569	0.516	0
30	4580	0.517	0
30	4588	0.518	0
30	4598	0.519	0
30	4607	0.52	0
30	4616	0.521	0
30	4625	0.522	0
30	4636	0.523	0
30	4644	0.524	0
30	4654	0.525	0
30	4663	0.526	0
30	4672	0.527	0
30	4681	0.528	0
30	4692	0.529	0
30	4700	0.53	0
30	4710	0.531	0
30	4719	0.532	0
30	4728	0.533	0
30	4737	0.534	0
30	4748	0.535	0
30	4756	0.536	0
30	4766	0.537	0
30	4775	0.538	0
30	4784	0.539	0
30	4793	0.54	0
30	4804	0.541	0
30	4812	0.542	0
30	4822	0.543	0
30	4831	0.544	0
30	4840	0.545	0
30	4849	0.546	0
30	4860	0.547	0
30	4868	0.548	0
30	4878	0.549	0
30	4887	0.55	0
30	4896	0.551	0
30	4905	0.552	0
30	4916	0.553	0
30	4924	0.554	0
30	4934	0.555	0
30	4943	0.556	0
30	4952	0.557	0
30	4961	0.558	0
30	4972	0.559	0
30	4980	0.56	0
30	4990	0.561	0
30	4999	0.562	0
30	5008	0.563	0
30	5017	0.564	0
30	5028	0.565	0
30	5036	0.566	0
30	5046	0.567	0
30	5055	0.568	0
30	5064	0.569	0
30	5073	0.57	0
30	5084	0.571	0
30	5092	0.572	0
30	5102	0.573	0
30	5111	0.574	0
30	5120	0.575	0
30	5129	0.576	0
30	5140	0.577	0
30	5148	0.578	0
30	5158	0.579	0
30	5167	0.58	0
30	5176	0.581	0
30	5185	0.582	0
30	5196	0.583	0
30	5204	0.584	0
30	5214	0.585	0
30	5223	0.586	0
30	5232	0.587	0
30	5241	0.588	0
30	5252	0.589	0
30	5260	0.59	0
30	5270	0.591	0
30	5279	0.592	0
30	5288	0.593	0
30	5297	0.594	0
30	5308	0.595	0
30	5316	0.596	0
30	5326	0.597	0
30	5335	0.598	0
30	5344	0.599	0
30	5354	0.6	0
30	5365	0.601	0
30	5373	0.602	0
30	5383	0.603	0
30	5392	0.604	0
30	5401	0.605	0
30	5410	0.606	0
30	5421	0.607	0
30	5429	0.608	0
30	5439	0.609	0
30	5448	0.61	0
30	5457	0.611	0
30	5466	0.612	0
30	5477	0.613	0
30	5485	0.614	0
30	5495	0.615	0
30	5504	0.616	0
30	5513	0.617	0
30	5522	0.618	0
30	5533	0.619	0
30	5541	0.62	0
30	5551	0.621	0
30	5560	0.622	0
30	5569	0.623	0
30	5578	0.624	0
30	5589	0.625	0
30	5597	0.626	0
30	5607	0.627	0
30	5616	0.628	0
30	5625	0.629	0
30	5634	0.63	0
30	5645	0.631	0
30	5653	0.632	0
30	5663	0.633	0
30	5672	0.634	0
30	5681	0.635	0
30	5690	0.636	0
30	5701	0.637	0
30	5709	0.638	0
30	5719	0.639	0
30	5728	0.64	0
30	5737	0.641	0
30	5746	0.642	0
30	5757	0.643	0
30	5765	0.644	0
30	5775	0.645	0
30	5784	0.646	0
30	5793	0.647	0
30	5802	0.648	0
30	5813	0.649	0
30	5821	0.65	0
30	5831	0.651	0
30	5840	0.652	0
30	5849	0.653	0
30	5858	0.654	0
30	5869	0.655	0
30	5877	0.656	0
30	5887	0.657	0
30	5896	0.658	0
30	5905	0.659	0
30	5914	0.66	0
30	5925	0.661	0
30	5933	0.662	0
30	5943	0.663	0
30	5952	0.664	0
30	5961	0.665	0
30	5970	0.666	0
30	5981	0.667	0
30	5989	0.668	0
30	5999	0.669	0
30	6008	0.67	0
30	6017	0.671	0
30	6026	0.672	0
30	6037	0.673	0
30	6045	0.674	0
30	6055	0.675	0
30	6064	0.676	0
30	6073	0.677	0
30	6082	0.678	0
30	6093	0.679	0
30	6101	0.68	0
30	6111	0.681	0
30	6120	0.682	0
30	6129	0.683	0
30	6138	0.684	0
30	6149	0.685	0
30	6157	0.686	0
30	6167	0.687	0
30	6176	0.688	0
30	6185	0.689	0
30	6194	0.69	0
30	6205	0.691	0
30	6213	0.692	0
30	6223	0.693	0
30	6232	0.694	0
30	6241	0.695	0
30	6250	0.696	0
30	6261	0.697	0
30	6269	0.698	0
30	6279	0.699	0
30	6289	0.7	0
30	6298	0.701	0
30	6307	0.702	0
30	6318	0.703	0
30	6326	0.704	0
30	6336	0.705	0
30	6345	0.706	0
30	6354	0.707	0
30	6363	0.708	0
30	6374	0.709	0
30	6382	0.71	0
30	6392	0.711	0
30	6401	0.712	0
30	6410	0.713	0
30	6419	0.714	0
30	6430	0.715	0
30	6438	0.716	0
30	6448	0.717	0
30	6457	0.718	0
30	6466	0.719	0
30	6475	0.72	0
30	6486	0.721	0
30	6494	0.722	0
30	6504	0.723	0
30	6513	0.724	0
30	6522	0.725	0
30	6531	0.726	0
30	6542	0.727	0
30	6550	0.728	0
30	6560	0.729	0
30	6569	0.73	0
30	6578	0.731	0
30	6587	0.732	0
30	6598	0.733	0
30	6606	0.734	0
30	6616	0.735	0
30	6625	0.736	0
30	6634	0.737	0
30	6643	0.738	0
30	6654	0.739	0
30	6662	0.74	0
30	6672	0.741	0
30	6681	0.742	0
30	6690	0.743	0
30	6699	0.744	0
30	6710	0.745	0
30	6718	0.746	0
30	6728	0.747	0
30	6737	0.748	0
30	6746	0.749	0
30	6755	0.75	0
30	6766	0.751	0
30	6774	0.752	0
30	6784	0.753	0
30	6793	0.754	0
30	6802	0.755	0
30	6811	0.756	0
30	6822	0.757	0
30	6830	0.758	0
30	6840	0.759	0
30	6849	0.76	0
30	6858	0.761	0
30	6867	0.762	0
30	6878	0.763	0
30	6886	0.764	0
30	6896	0.765	0
30	6905	0.766	0
30	6914	0.767	0
30	6923	0.768	0
30	6934	0.769	0
30	6942	0.77	0
30	6952	0.771	0
30	6961	0.772	0
30	6970	0.773	0
30	6979	0.774	0
30	6990	0.775	0
30	6998	0.776	0
30	7008	0.777	0
30	7017	0.778	0
30	7026	0.779	0
30	7035	0.78	0
30	7046	0.781	0
30	7054	0.782	0
30	7064	0.783	0
30	7073	0.784	0
30	7082	0.785	0
30	7091	0.786	0
30	7102	0.787	0
30	7110	0.788	0
30	7120	0.789	0
30	7129	0.79	0
30	7138	0.791	0
30	7147	0.792	0
30	7158	0.793	0
30	7166	0.794	0
30	7176	0.795	0
30	7185	0.796	0
30	7194	0.797	0
30	7203	0.798	0
30	7214	0.799	0
30	7223	0.8	0
30	7233	0.801	0
30	7242	0.802	0
30	7251	0.803	0
30	7260	0.804	0
30	7271	0.805	0
30	7279	0.806	0
30	7289	0.807	0
30	7298	0.808	0
30	7307	0.809	0
30	7316	0.81	0
30	7327	0.811	0
30	7335	0.812	0
30	7345	0.813	0
30	7354	0.814	0
30	7363	0.815	0
30	7372	0.816	0
30	7383	0.817	0
30	7391	0.818	0
30	7401	0.819	0
30	7410	0.82	0
30	7419	0.821	0
30	7428	0.822	0
30	7439	0.823	0
30	7447	0.824	0
30	7457	0.825	0
30	7466	0.826	0
30	7475	0.827	0
30	7484	0.828	0
30	7495	0.829	0
30	7503	0.83	0
30	7513	0.831	0
30	7522	0.832	0
30	7531	0.833	0
30	7540	0.834	0
30	7551	0.835	0
30	7559	0.836	0
30	7569	0.837	0
30	7578	0.838	0
30	7587	0.839	0
30	7596	0.84	0
30	7607	0.841	0
30	7615	0.842	0
30	7625	0.843	0
30	7634	0.844	0
30	7643	0.845	0
30	7652	0.846	0
30	7663	0.847	0
30	7671	0.848	0
30	7681	0.849	0
30	7690	0.85	0
30	7699	0.851	0
30	7708	0.852	0
30	7719	0.853	0
30	7727	0.854	0
30	7737	0.855	0
30	7746	0.856	0
30	7755	0.857	0
30	7764	0.858	0
30	7775	0.859	0
30	7783	0.86	0
30	7793	0.861	0
30	7802	0.862	0
30	7811	0.863	0
30	7820	0.864	0
30	7831	0.865	0
30	7839	0.866	0
30	7849	0.867	0
30	7858	0.868	0
30	7867	0.869	0
30	7876	0.87	0
30	7887	0.871	0
30	7895	0.872	0
30	7905	0.873	0
30	7914	0.874	0
30	7923	0.875	0
30	7932	0.876	0
30	7943	0.877	0
30	7951	0.878	0
30	7961	0.879	0
30	7970	0.88	0
30	7979	0.881	0
30	7988	0.882	0
30	7999	0.883	0
30	8007	0.884	0
30	8017	0.885	0
30	8026	0.886	0
30	8035	0.887	0
30	8044	0.888	0
30	8055	0.889	0
30	8063	0.89	0
30	8073	0.891	0
30	8082	0.892	0
30	8091	0.893	0
30	8100	0.894	0
30	8111	0.895	0
30	8119	0.896	0
30	8129	0.897	0
30	8138	0.898	0
30	8147	0.899	0
30	8157	0.9	0
30	8168	0.901	0
30	8176	0.902	0
30	8186	0.903	0
30	8195	0.904	0
30	8204	0.905	0
30	8213	0.906	0
30	8224	0.907	0
30	8232	0.908	0
30	8242	0.909	0
30	8251	0.91	0
30	8260	0.911	0
30	8269	0.912	0
30	8280	0.913	0
30	8288	0.914	0
30	8298	0.915	0
30	8307	0.916	0
30	8316	0.917	0
30	8325	0.918	0
30	8336	0.919	0
30	8344	0.92	0
30	8354	0.921	0
30	8363	0.922	0
30	8372	0.923	0
30	8381	0.924	0
30	8392	0.925	0
30	8400	0.926	0
30	8410	0.927	0
30	8419	0.928	0
30	8428	0.929	0
30	8437	0.93	0
30	8448	0.931	0
30	8456	0.932	0
30	8466	0.933	0
30	8475	0.934	0
30	8484	0.935	0
30	8493	0.936	0
30	8504	0.937	0
30	8512	0.938	0
30	8522	0.939	0
30	8531	0.94	0
30	8540	0.941	0
30	8549	0.942	0
30	8560	0.943	0
30	8568	0.944	0
30	8578	0.945	0